TITLE = "dt=0.100000s, t=99.999046s, nu=0.000016, Lx=-1073741824, Ly=1073972510, Lz-1073741824, Nx=1073972510, Ny=-1073741824, Nz=1073972510 "
VARIABLES =X, Y, Z, U, V, W,P,T,DEN 
ZONE F=POINT, I=15, J=19, K=15
0.000000	0.000000	0.000000	0.000000	0.000000	0.000000	-0.276928	300.000000	0.117334
0.076250	0.000000	0.000000	0.000000	0.000000	0.000000	-0.276928	300.000000	0.117334
0.228750	0.000000	0.000000	0.000000	0.000000	0.000000	-0.297987	300.000000	0.126804
0.381250	0.000000	0.000000	0.000000	0.000000	0.000000	-0.320919	300.000000	0.129865
0.533750	0.000000	0.000000	0.000000	0.000000	0.000000	-0.338695	300.000000	0.132317
0.732000	0.000000	0.000000	0.000000	0.000000	0.000000	-0.350448	300.000000	0.135273
0.976000	0.000000	0.000000	0.000000	0.000000	0.000000	-0.354414	300.000000	0.137292
1.220000	0.000000	0.000000	0.000000	0.000000	0.000000	-0.352662	300.000000	0.137148
1.464000	0.000000	0.000000	0.000000	0.000000	0.000000	-0.345241	300.000000	0.137179
1.708000	0.000000	0.000000	0.000000	0.000000	0.000000	-0.327510	300.000000	0.137591
1.906250	0.000000	0.000000	0.000000	0.000000	0.000000	-0.298654	300.000000	0.138474
2.058750	0.000000	0.000000	0.000000	0.000000	0.000000	-0.260693	300.000000	0.139832
2.211250	0.000000	0.000000	0.000000	0.000000	0.000000	-0.197279	300.000000	0.141922
2.363750	0.000000	0.000000	0.000000	0.000000	0.000000	-0.198716	300.000000	0.144924
2.440000	0.000000	0.000000	0.000000	0.000000	0.000000	-0.198716	298.966583	0.144924
0.000000	0.040000	0.000000	0.000000	0.000000	0.000000	-0.276928	300.000000	0.117334
0.076250	0.040000	0.000000	0.000000	0.000000	0.000000	-0.276928	300.000000	0.117334
0.228750	0.040000	0.000000	0.000000	0.000000	0.000000	-0.297987	300.000000	0.126804
0.381250	0.040000	0.000000	0.000000	0.000000	0.000000	-0.320919	300.000000	0.129865
0.533750	0.040000	0.000000	0.000000	0.000000	0.000000	-0.338695	300.000000	0.132317
0.732000	0.040000	0.000000	0.000000	0.000000	0.000000	-0.350448	300.000000	0.135273
0.976000	0.040000	0.000000	0.000000	0.000000	0.000000	-0.354414	300.000000	0.137292
1.220000	0.040000	0.000000	0.000000	0.000000	0.000000	-0.352662	300.000000	0.137148
1.464000	0.040000	0.000000	0.000000	0.000000	0.000000	-0.345241	300.000000	0.137179
1.708000	0.040000	0.000000	0.000000	0.000000	0.000000	-0.327510	300.000000	0.137591
1.906250	0.040000	0.000000	0.000000	0.000000	0.000000	-0.298654	300.000000	0.138474
2.058750	0.040000	0.000000	0.000000	0.000000	0.000000	-0.260693	300.000000	0.139832
2.211250	0.040000	0.000000	0.000000	0.000000	0.000000	-0.197279	300.000000	0.141922
2.363750	0.040000	0.000000	0.000000	0.000000	0.000000	-0.198716	300.000000	0.144924
2.440000	0.040000	0.000000	0.000000	0.000000	0.000000	-0.198716	298.449890	0.144924
0.000000	0.130982	0.000000	0.000000	0.000000	0.000000	-0.258036	300.000000	0.121105
0.076250	0.130982	0.000000	0.000000	0.000000	0.000000	-0.258036	300.000000	0.121105
0.228750	0.130982	0.000000	0.000000	0.000000	0.000000	-0.279917	300.000000	0.129567
0.381250	0.130982	0.000000	0.000000	0.000000	0.000000	-0.303003	300.000000	0.130077
0.533750	0.130982	0.000000	0.000000	0.000000	0.000000	-0.320384	300.000000	0.129439
0.732000	0.130982	0.000000	0.000000	0.000000	0.000000	-0.331732	300.000000	0.128488
0.976000	0.130982	0.000000	0.000000	0.000000	0.000000	-0.335504	300.000000	0.127692
1.220000	0.130982	0.000000	0.000000	0.000000	0.000000	-0.334047	300.000000	0.127366
1.464000	0.130982	0.000000	0.000000	0.000000	0.000000	-0.327451	300.000000	0.127254
1.708000	0.130982	0.000000	0.000000	0.000000	0.000000	-0.311689	300.000000	0.127606
1.906250	0.130982	0.000000	0.000000	0.000000	0.000000	-0.286767	300.000000	0.128728
2.058750	0.130982	0.000000	0.000000	0.000000	0.000000	-0.256693	300.000000	0.131526
2.211250	0.130982	0.000000	0.000000	0.000000	0.000000	-0.214472	300.000000	0.137650
2.363750	0.130982	0.000000	0.000000	0.000000	0.000000	-0.208106	300.000000	0.148903
2.440000	0.130982	0.000000	0.000000	0.000000	0.000000	-0.208106	300.000000	0.148903
0.000000	0.275182	0.000000	0.000000	0.000000	0.000000	-0.242741	300.000000	0.122293
0.076250	0.275182	0.000000	0.000000	0.000000	0.000000	-0.242741	300.000000	0.122293
0.228750	0.275182	0.000000	0.000000	0.000000	0.000000	-0.260834	300.000000	0.125398
0.381250	0.275182	0.000000	0.000000	0.000000	0.000000	-0.280419	300.000000	0.121132
0.533750	0.275182	0.000000	0.000000	0.000000	0.000000	-0.294811	300.000000	0.117229
0.732000	0.275182	0.000000	0.000000	0.000000	0.000000	-0.303923	300.000000	0.113732
0.976000	0.275182	0.000000	0.000000	0.000000	0.000000	-0.306840	300.000000	0.111346
1.220000	0.275182	0.000000	0.000000	0.000000	0.000000	-0.305752	300.000000	0.110241
1.464000	0.275182	0.000000	0.000000	0.000000	0.000000	-0.300793	300.000000	0.109458
1.708000	0.275182	0.000000	0.000000	0.000000	0.000000	-0.289319	300.000000	0.108671
1.906250	0.275182	0.000000	0.000000	0.000000	0.000000	-0.272692	300.000000	0.109524
2.058750	0.275182	0.000000	0.000000	0.000000	0.000000	-0.254978	300.000000	0.114034
2.211250	0.275182	0.000000	0.000000	0.000000	0.000000	-0.231493	300.000000	0.126249
2.363750	0.275182	0.000000	0.000000	0.000000	0.000000	-0.220144	300.000000	0.151501
2.440000	0.275182	0.000000	0.000000	0.000000	0.000000	-0.220144	300.000000	0.151501
0.000000	0.489112	0.000000	0.000000	0.000000	0.000000	-0.224732	300.000000	0.119929
0.076250	0.489112	0.000000	0.000000	0.000000	0.000000	-0.224732	300.000000	0.119929
0.228750	0.489112	0.000000	0.000000	0.000000	0.000000	-0.237951	300.000000	0.112668
0.381250	0.489112	0.000000	0.000000	0.000000	0.000000	-0.250929	300.000000	0.101273
0.533750	0.489112	0.000000	0.000000	0.000000	0.000000	-0.259093	300.000000	0.092411
0.732000	0.489112	0.000000	0.000000	0.000000	0.000000	-0.263454	300.000000	0.083974
0.976000	0.489112	0.000000	0.000000	0.000000	0.000000	-0.264435	300.000000	0.078382
1.220000	0.489112	0.000000	0.000000	0.000000	0.000000	-0.264060	300.000000	0.075492
1.464000	0.489112	0.000000	0.000000	0.000000	0.000000	-0.261809	300.000000	0.074096
1.708000	0.489112	0.000000	0.000000	0.000000	0.000000	-0.256222	300.000000	0.074499
1.906250	0.489112	0.000000	0.000000	0.000000	0.000000	-0.249407	300.000000	0.077640
2.058750	0.489112	0.000000	0.000000	0.000000	0.000000	-0.242987	300.000000	0.084990
2.211250	0.489112	0.000000	0.000000	0.000000	0.000000	-0.234013	300.000000	0.105685
2.363750	0.489112	0.000000	0.000000	0.000000	0.000000	-0.223810	300.000000	0.152504
2.440000	0.489112	0.000000	0.000000	0.000000	0.000000	-0.223810	300.000000	0.152504
0.000000	0.752770	0.000000	0.000000	0.000000	0.000000	-0.190805	300.000000	0.113202
0.076250	0.752770	0.000000	0.000000	0.000000	0.000000	-0.190805	300.000000	0.113202
0.228750	0.752770	0.000000	0.000000	0.000000	0.000000	-0.198866	300.000000	0.091870
0.381250	0.752770	0.000000	0.000000	0.000000	0.000000	-0.205253	300.000000	0.074359
0.533750	0.752770	0.000000	0.000000	0.000000	0.000000	-0.208404	300.000000	0.062709
0.732000	0.752770	0.000000	0.000000	0.000000	0.000000	-0.209796	300.000000	0.052222
0.976000	0.752770	0.000000	0.000000	0.000000	0.000000	-0.209796	300.000000	0.043489
1.220000	0.752770	0.000000	0.000000	0.000000	0.000000	-0.209090	300.000000	0.038457
1.464000	0.752770	0.000000	0.000000	0.000000	0.000000	-0.207745	300.000000	0.040814
1.708000	0.752770	0.000000	0.000000	0.000000	0.000000	-0.205943	300.000000	0.045638
1.906250	0.752770	0.000000	0.000000	0.000000	0.000000	-0.204364	300.000000	0.051707
2.058750	0.752770	0.000000	0.000000	0.000000	0.000000	-0.203260	300.000000	0.059214
2.211250	0.752770	0.000000	0.000000	0.000000	0.000000	-0.201807	300.000000	0.084335
2.363750	0.752770	0.000000	0.000000	0.000000	0.000000	-0.197262	300.000000	0.153739
2.440000	0.752770	0.000000	0.000000	0.000000	0.000000	-0.197262	300.000000	0.153739
0.000000	1.057858	0.000000	0.000000	0.000000	0.000000	-0.135409	300.000000	0.104824
0.076250	1.057858	0.000000	0.000000	0.000000	0.000000	-0.135409	300.000000	0.104824
0.228750	1.057858	0.000000	0.000000	0.000000	0.000000	-0.138202	300.000000	0.075252
0.381250	1.057858	0.000000	0.000000	0.000000	0.000000	-0.139926	300.000000	0.062031
0.533750	1.057858	0.000000	0.000000	0.000000	0.000000	-0.141130	300.000000	0.056660
0.732000	1.057858	0.000000	0.000000	0.000000	0.000000	-0.142354	300.000000	0.051714
0.976000	1.057858	0.000000	0.000000	0.000000	0.000000	-0.143230	300.000000	0.044729
1.220000	1.057858	0.000000	0.000000	0.000000	0.000000	-0.143012	300.000000	0.040308
1.464000	1.057858	0.000000	0.000000	0.000000	0.000000	-0.142232	300.000000	0.039613
1.708000	1.057858	0.000000	0.000000	0.000000	0.000000	-0.141535	300.000000	0.041761
1.906250	1.057858	0.000000	0.000000	0.000000	0.000000	-0.140912	300.000000	0.045668
2.058750	1.057858	0.000000	0.000000	0.000000	0.000000	-0.140472	300.000000	0.049941
2.211250	1.057858	0.000000	0.000000	0.000000	0.000000	-0.140328	300.000000	0.073109
2.363750	1.057858	0.000000	0.000000	0.000000	0.000000	-0.139250	300.000000	0.155431
2.440000	1.057858	0.000000	0.000000	0.000000	0.000000	-0.139250	300.000000	0.155431
0.000000	1.387693	0.000000	0.000000	0.000000	0.000000	-0.064172	300.000000	0.097661
0.076250	1.387693	0.000000	0.000000	0.000000	0.000000	-0.064172	300.000000	0.097661
0.228750	1.387693	0.000000	0.000000	0.000000	0.000000	-0.063517	300.000000	0.067659
0.381250	1.387693	0.000000	0.000000	0.000000	0.000000	-0.064576	300.000000	0.061692
0.533750	1.387693	0.000000	0.000000	0.000000	0.000000	-0.065622	300.000000	0.059514
0.732000	1.387693	0.000000	0.000000	0.000000	0.000000	-0.066314	300.000000	0.060129
0.976000	1.387693	0.000000	0.000000	0.000000	0.000000	-0.067143	300.000000	0.060263
1.220000	1.387693	0.000000	0.000000	0.000000	0.000000	-0.068241	300.000000	0.046457
1.464000	1.387693	0.000000	0.000000	0.000000	0.000000	-0.068038	300.000000	0.043614
1.708000	1.387693	0.000000	0.000000	0.000000	0.000000	-0.066648	300.000000	0.043148
1.906250	1.387693	0.000000	0.000000	0.000000	0.000000	-0.065630	300.000000	0.045740
2.058750	1.387693	0.000000	0.000000	0.000000	0.000000	-0.064919	300.000000	0.048158
2.211250	1.387693	0.000000	0.000000	0.000000	0.000000	-0.064353	300.000000	0.069530
2.363750	1.387693	0.000000	0.000000	0.000000	0.000000	-0.064001	300.000000	0.157613
2.440000	1.387693	0.000000	0.000000	0.000000	0.000000	-0.064001	300.000000	0.157613
0.000000	1.633211	0.000000	0.000000	0.000000	0.000000	-0.007073	300.000000	0.091697
0.076250	1.633211	0.000000	0.000000	0.000000	0.000000	-0.007073	300.000000	0.091697
0.228750	1.633211	0.000000	0.000000	0.000000	0.000000	-0.006649	300.000000	0.058133
0.381250	1.633211	0.000000	0.000000	0.000000	0.000000	-0.007260	300.000000	0.057016
0.533750	1.633211	0.000000	0.000000	0.000000	0.000000	-0.008768	300.000000	0.056423
0.732000	1.633211	0.000000	0.000000	0.000000	0.000000	-0.009933	300.000000	0.057759
0.976000	1.633211	0.000000	0.000000	0.000000	0.000000	-0.010120	300.000000	0.059575
1.220000	1.633211	0.000000	0.000000	0.000000	0.000000	-0.010715	300.000000	0.055127
1.464000	1.633211	0.000000	0.000000	0.000000	0.000000	-0.011069	300.000000	0.047660
1.708000	1.633211	0.000000	0.000000	0.000000	0.000000	-0.010024	300.000000	0.044769
1.906250	1.633211	0.000000	0.000000	0.000000	0.000000	-0.008747	300.000000	0.045732
2.058750	1.633211	0.000000	0.000000	0.000000	0.000000	-0.007776	300.000000	0.048276
2.211250	1.633211	0.000000	0.000000	0.000000	0.000000	-0.006619	300.000000	0.066758
2.363750	1.633211	0.000000	0.000000	0.000000	0.000000	-0.005135	300.000000	0.159066
2.440000	1.633211	0.000000	0.000000	0.000000	0.000000	-0.005135	300.000000	0.159066
0.000000	1.772373	0.000000	0.000000	0.000000	0.000000	0.025954	300.000000	0.088412
0.076250	1.772373	0.000000	0.000000	0.000000	0.000000	0.025954	300.000000	0.088412
0.228750	1.772373	0.000000	0.000000	0.000000	0.000000	0.026142	300.000000	0.059014
0.381250	1.772373	0.000000	0.000000	0.000000	0.000000	0.026130	300.000000	0.059009
0.533750	1.772373	0.000000	0.000000	0.000000	0.000000	0.024654	300.000000	0.058251
0.732000	1.772373	0.000000	0.000000	0.000000	0.000000	0.023150	300.000000	0.059904
0.976000	1.772373	0.000000	0.000000	0.000000	0.000000	0.022239	300.000000	0.061337
1.220000	1.772373	0.000000	0.000000	0.000000	0.000000	0.021865	300.000000	0.060431
1.464000	1.772373	0.000000	0.000000	0.000000	0.000000	0.021817	300.000000	0.055095
1.708000	1.772373	0.000000	0.000000	0.000000	0.000000	0.022792	300.000000	0.048159
1.906250	1.772373	0.000000	0.000000	0.000000	0.000000	0.023845	300.000000	0.046125
2.058750	1.772373	0.000000	0.000000	0.000000	0.000000	0.024736	300.000000	0.048260
2.211250	1.772373	0.000000	0.000000	0.000000	0.000000	0.026090	300.000000	0.064012
2.363750	1.772373	0.000000	0.000000	0.000000	0.000000	0.029381	300.000000	0.159616
2.440000	1.772373	0.000000	0.000000	0.000000	0.000000	0.029381	300.000000	0.159616
0.000000	1.886314	0.000000	0.000000	0.000000	0.000000	0.052993	300.000000	0.085896
0.076250	1.886314	0.000000	0.000000	0.000000	0.000000	0.052993	300.000000	0.085896
0.228750	1.886314	0.000000	0.000000	0.000000	0.000000	0.052990	300.000000	0.060900
0.381250	1.886314	0.000000	0.000000	0.000000	0.000000	0.053709	300.000000	0.061979
0.533750	1.886314	0.000000	0.000000	0.000000	0.000000	0.052738	300.000000	0.060212
0.732000	1.886314	0.000000	0.000000	0.000000	0.000000	0.051563	300.000000	0.061757
0.976000	1.886314	0.000000	0.000000	0.000000	0.000000	0.049935	300.000000	0.063017
1.220000	1.886314	0.000000	0.000000	0.000000	0.000000	0.048839	300.000000	0.063882
1.464000	1.886314	0.000000	0.000000	0.000000	0.000000	0.048901	300.000000	0.061490
1.708000	1.886314	0.000000	0.000000	0.000000	0.000000	0.050004	300.000000	0.054148
1.906250	1.886314	0.000000	0.000000	0.000000	0.000000	0.051106	300.000000	0.048331
2.058750	1.886314	0.000000	0.000000	0.000000	0.000000	0.051923	300.000000	0.048124
2.211250	1.886314	0.000000	0.000000	0.000000	0.000000	0.053142	300.000000	0.061225
2.363750	1.886314	0.000000	0.000000	0.000000	0.000000	0.059503	300.000000	0.159941
2.440000	1.886314	0.000000	0.000000	0.000000	0.000000	0.059503	300.000000	0.159941
0.000000	1.985855	0.000000	0.000000	0.000000	0.000000	0.076595	300.000000	0.083972
0.076250	1.985855	0.000000	0.000000	0.000000	0.000000	0.076595	300.000000	0.083972
0.228750	1.985855	0.000000	0.000000	0.000000	0.000000	0.076230	300.000000	0.062575
0.381250	1.985855	0.000000	0.000000	0.000000	0.000000	0.077665	300.000000	0.064788
0.533750	1.985855	0.000000	0.000000	0.000000	0.000000	0.077892	300.000000	0.062269
0.732000	1.985855	0.000000	0.000000	0.000000	0.000000	0.077343	300.000000	0.063691
0.976000	1.985855	0.000000	0.000000	0.000000	0.000000	0.075266	300.000000	0.064786
1.220000	1.985855	0.000000	0.000000	0.000000	0.000000	0.073287	300.000000	0.065823
1.464000	1.985855	0.000000	0.000000	0.000000	0.000000	0.072826	300.000000	0.065879
1.708000	1.985855	0.000000	0.000000	0.000000	0.000000	0.073902	300.000000	0.060493
1.906250	1.985855	0.000000	0.000000	0.000000	0.000000	0.075158	300.000000	0.053252
2.058750	1.985855	0.000000	0.000000	0.000000	0.000000	0.076202	300.000000	0.049439
2.211250	1.985855	0.000000	0.000000	0.000000	0.000000	0.077793	300.000000	0.059499
2.363750	1.985855	0.000000	0.000000	0.000000	0.000000	0.089142	300.000000	0.160148
2.440000	1.985855	0.000000	0.000000	0.000000	0.000000	0.089142	300.000000	0.160148
0.000000	2.075658	0.000000	0.000000	0.000000	0.000000	0.098202	300.000000	0.082615
0.076250	2.075658	0.000000	0.000000	0.000000	0.000000	0.098202	300.000000	0.082615
0.228750	2.075658	0.000000	0.000000	0.000000	0.000000	0.097139	300.000000	0.063504
0.381250	2.075658	0.000000	0.000000	0.000000	0.000000	0.098788	300.000000	0.067557
0.533750	2.075658	0.000000	0.000000	0.000000	0.000000	0.100625	300.000000	0.065428
0.732000	2.075658	0.000000	0.000000	0.000000	0.000000	0.100630	300.000000	0.066581
0.976000	2.075658	0.000000	0.000000	0.000000	0.000000	0.098380	300.000000	0.067557
1.220000	2.075658	0.000000	0.000000	0.000000	0.000000	0.095817	300.000000	0.068490
1.464000	2.075658	0.000000	0.000000	0.000000	0.000000	0.094706	300.000000	0.069242
1.708000	2.075658	0.000000	0.000000	0.000000	0.000000	0.095521	300.000000	0.066544
1.906250	2.075658	0.000000	0.000000	0.000000	0.000000	0.096892	300.000000	0.060216
2.058750	2.075658	0.000000	0.000000	0.000000	0.000000	0.098200	300.000000	0.053428
2.211250	2.075658	0.000000	0.000000	0.000000	0.000000	0.100702	300.000000	0.062563
2.363750	2.075658	0.000000	0.000000	0.000000	0.000000	0.123044	300.000000	0.160885
2.440000	2.075658	0.000000	0.000000	0.000000	0.000000	0.123044	300.000000	0.160885
0.000000	2.158275	0.000000	0.000000	0.000000	0.000000	0.119066	300.000000	0.082024
0.076250	2.158275	0.000000	0.000000	0.000000	0.000000	0.119066	300.000000	0.082024
0.228750	2.158275	0.000000	0.000000	0.000000	0.000000	0.116645	300.000000	0.064753
0.381250	2.158275	0.000000	0.000000	0.000000	0.000000	0.117957	300.000000	0.070654
0.533750	2.158275	0.000000	0.000000	0.000000	0.000000	0.120292	300.000000	0.071358
0.732000	2.158275	0.000000	0.000000	0.000000	0.000000	0.120947	300.000000	0.071611
0.976000	2.158275	0.000000	0.000000	0.000000	0.000000	0.119006	300.000000	0.072156
1.220000	2.158275	0.000000	0.000000	0.000000	0.000000	0.116332	300.000000	0.072733
1.464000	2.158275	0.000000	0.000000	0.000000	0.000000	0.114812	300.000000	0.073481
1.708000	2.158275	0.000000	0.000000	0.000000	0.000000	0.115416	300.000000	0.072655
1.906250	2.158275	0.000000	0.000000	0.000000	0.000000	0.116829	300.000000	0.068682
2.058750	2.158275	0.000000	0.000000	0.000000	0.000000	0.118051	300.000000	0.060596
2.211250	2.158275	0.000000	0.000000	0.000000	0.000000	0.122132	300.000000	0.069798
2.363750	2.158275	0.000000	0.000000	0.000000	0.000000	0.167905	300.000000	0.162209
2.440000	2.158275	0.000000	0.000000	0.000000	0.000000	0.167905	300.000000	0.162209
0.000000	2.235292	0.000000	0.000000	0.000000	0.000000	0.139764	300.000000	0.079651
0.076250	2.235292	0.000000	0.000000	0.000000	0.000000	0.139764	300.000000	0.079651
0.228750	2.235292	0.000000	0.000000	0.000000	0.000000	0.135209	300.000000	0.071493
0.381250	2.235292	0.000000	0.000000	0.000000	0.000000	0.136273	300.000000	0.072258
0.533750	2.235292	0.000000	0.000000	0.000000	0.000000	0.138170	300.000000	0.075052
0.732000	2.235292	0.000000	0.000000	0.000000	0.000000	0.139063	300.000000	0.077235
0.976000	2.235292	0.000000	0.000000	0.000000	0.000000	0.137512	300.000000	0.078171
1.220000	2.235292	0.000000	0.000000	0.000000	0.000000	0.134985	300.000000	0.078490
1.464000	2.235292	0.000000	0.000000	0.000000	0.000000	0.133351	300.000000	0.078904
1.708000	2.235292	0.000000	0.000000	0.000000	0.000000	0.133875	300.000000	0.079042
1.906250	2.235292	0.000000	0.000000	0.000000	0.000000	0.135300	300.000000	0.077932
2.058750	2.235292	0.000000	0.000000	0.000000	0.000000	0.135909	300.000000	0.071717
2.211250	2.235292	0.000000	0.000000	0.000000	0.000000	0.143115	300.000000	0.080954
2.363750	2.235292	0.000000	0.000000	0.000000	0.000000	0.234099	300.000000	0.164522
2.440000	2.235292	0.000000	0.000000	0.000000	0.000000	0.234099	300.000000	0.164522
0.000000	2.307779	0.000000	0.000000	0.000000	0.000000	0.159925	300.000000	0.076476
0.076250	2.307779	0.000000	0.000000	0.000000	0.000000	0.159925	300.000000	0.076476
0.228750	2.307779	0.000000	0.000000	0.000000	0.000000	0.155195	300.000000	0.075665
0.381250	2.307779	0.000000	0.000000	0.000000	0.000000	0.153925	300.000000	0.076403
0.533750	2.307779	0.000000	0.000000	0.000000	0.000000	0.155404	300.000000	0.077448
0.732000	2.307779	0.000000	0.000000	0.000000	0.000000	0.156216	300.000000	0.078930
0.976000	2.307779	0.000000	0.000000	0.000000	0.000000	0.154743	300.000000	0.080890
1.220000	2.307779	0.000000	0.000000	0.000000	0.000000	0.152274	300.000000	0.082731
1.464000	2.307779	0.000000	0.000000	0.000000	0.000000	0.150600	300.000000	0.084157
1.708000	2.307779	0.000000	0.000000	0.000000	0.000000	0.151103	300.000000	0.085037
1.906250	2.307779	0.000000	0.000000	0.000000	0.000000	0.152456	300.000000	0.084881
2.058750	2.307779	0.000000	0.000000	0.000000	0.000000	0.151561	300.000000	0.082240
2.211250	2.307779	0.000000	0.000000	0.000000	0.000000	0.165288	300.000000	0.095311
2.363750	2.307779	0.000000	0.000000	0.000000	0.000000	0.334930	300.000000	0.168695
2.440000	2.307779	0.000000	0.000000	0.000000	0.000000	0.334930	300.000000	0.168695
0.000000	2.376500	0.000000	0.000000	0.000000	0.000000	0.179035	300.000000	0.078918
0.076250	2.376500	0.000000	0.000000	0.000000	0.000000	0.179035	300.000000	0.078918
0.228750	2.376500	0.000000	0.000000	0.000000	0.000000	0.176168	300.000000	0.079840
0.381250	2.376500	0.000000	0.000000	0.000000	0.000000	0.170486	300.000000	0.084402
0.533750	2.376500	0.000000	0.000000	0.000000	0.000000	0.171487	300.000000	0.088487
0.732000	2.376500	0.000000	0.000000	0.000000	0.000000	0.172183	300.000000	0.092741
0.976000	2.376500	0.000000	0.000000	0.000000	0.000000	0.170609	300.000000	0.096786
1.220000	2.376500	0.000000	0.000000	0.000000	0.000000	0.168064	300.000000	0.100094
1.464000	2.376500	0.000000	0.000000	0.000000	0.000000	0.166295	300.000000	0.102700
1.708000	2.376500	0.000000	0.000000	0.000000	0.000000	0.166764	300.000000	0.104594
1.906250	2.376500	0.000000	0.000000	0.000000	0.000000	0.167857	300.000000	0.104701
2.058750	2.376500	0.000000	0.000000	0.000000	0.000000	0.164126	300.000000	0.103424
2.211250	2.376500	0.000000	0.000000	0.000000	0.000000	0.192941	300.000000	0.125299
2.363750	2.376500	0.000000	0.000000	0.000000	0.000000	0.472932	300.000000	0.176028
2.440000	2.376500	0.000000	0.000000	0.000000	0.000000	0.472932	300.000000	0.176028
0.000000	2.424999	0.000000	0.680000	0.000000	0.000000	0.188265	297.500000	0.198619
0.076250	2.424999	0.000000	0.000000	0.000000	0.000000	0.188265	300.000000	0.197238
0.228750	2.424999	0.000000	0.000000	0.000000	0.000000	0.185457	300.000000	0.197055
0.381250	2.424999	0.000000	0.000000	0.000000	0.000000	0.180044	300.000000	0.196874
0.533750	2.424999	0.000000	0.000000	0.000000	0.000000	0.180654	300.000000	0.196700
0.732000	2.424999	0.000000	0.000000	0.000000	0.000000	0.181295	300.000000	0.196494
0.976000	2.424999	0.000000	0.000000	0.000000	0.000000	0.179757	300.000000	0.196245
1.220000	2.424999	0.000000	0.000000	0.000000	0.000000	0.177240	300.000000	0.196007
1.464000	2.424999	0.000000	0.000000	0.000000	0.000000	0.175493	300.000000	0.195772
1.708000	2.424999	0.000000	0.000000	0.000000	0.000000	0.175870	300.000000	0.192555
1.906250	2.424999	0.000000	0.000000	0.000000	0.000000	0.176817	300.000000	0.188514
2.058750	2.424999	0.000000	0.000000	0.000000	0.000000	0.175473	300.000000	0.185392
2.211250	2.424999	0.000000	0.000000	0.000000	0.000000	0.217170	300.000000	0.181876
2.363750	2.424999	0.000000	0.000000	0.000000	0.000000	0.497307	300.000000	0.181818
2.440000	2.424999	0.000000	0.000000	0.000000	0.000000	0.497307	300.000000	0.181818
0.000000	2.440000	0.000000	0.453333	0.000000	0.000000	0.188265	297.666656	0.198159
0.076250	2.440000	0.000000	0.000000	0.000000	0.000000	0.188265	299.000000	0.197238
0.228750	2.440000	0.000000	0.000000	0.000000	0.000000	0.185457	299.000000	0.197055
0.381250	2.440000	0.000000	0.000000	0.000000	0.000000	0.180044	299.000000	0.196874
0.533750	2.440000	0.000000	0.000000	0.000000	0.000000	0.180654	299.000000	0.196700
0.732000	2.440000	0.000000	0.000000	0.000000	0.000000	0.181295	299.000000	0.196494
0.976000	2.440000	0.000000	0.000000	0.000000	0.000000	0.179757	299.000000	0.196245
1.220000	2.440000	0.000000	0.000000	0.000000	0.000000	0.177240	299.000000	0.196007
1.464000	2.440000	0.000000	0.000000	0.000000	0.000000	0.175493	299.000000	0.195772
1.708000	2.440000	0.000000	0.000000	0.000000	0.000000	0.175870	299.000000	0.192555
1.906250	2.440000	0.000000	0.000000	0.000000	0.000000	0.176817	299.000000	0.188514
2.058750	2.440000	0.000000	0.000000	0.000000	0.000000	0.175473	299.000000	0.185392
2.211250	2.440000	0.000000	0.000000	0.000000	0.000000	0.217170	299.000000	0.181876
2.363750	2.440000	0.000000	0.000000	0.000000	0.000000	0.497307	299.000000	0.181818
2.440000	2.440000	0.000000	0.000000	0.000000	0.000000	0.497307	299.333344	0.181818
0.000000	0.000000	0.076250	0.000000	0.000000	0.000000	-0.276928	300.000000	0.117334
0.076250	0.000000	0.076250	0.000000	0.000000	0.000000	-0.276928	300.000000	0.117334
0.228750	0.000000	0.076250	0.000000	0.000000	0.000000	-0.297987	300.000000	0.126804
0.381250	0.000000	0.076250	0.000000	0.000000	0.000000	-0.320919	300.000000	0.129865
0.533750	0.000000	0.076250	0.000000	0.000000	0.000000	-0.338695	300.000000	0.132317
0.732000	0.000000	0.076250	0.000000	0.000000	0.000000	-0.350448	300.000000	0.135273
0.976000	0.000000	0.076250	0.000000	0.000000	0.000000	-0.354414	300.000000	0.137292
1.220000	0.000000	0.076250	0.000000	0.000000	0.000000	-0.352662	300.000000	0.137148
1.464000	0.000000	0.076250	0.000000	0.000000	0.000000	-0.345241	300.000000	0.137179
1.708000	0.000000	0.076250	0.000000	0.000000	0.000000	-0.327510	300.000000	0.137591
1.906250	0.000000	0.076250	0.000000	0.000000	0.000000	-0.298654	300.000000	0.138474
2.058750	0.000000	0.076250	0.000000	0.000000	0.000000	-0.260693	300.000000	0.139832
2.211250	0.000000	0.076250	0.000000	0.000000	0.000000	-0.197279	300.000000	0.141922
2.363750	0.000000	0.076250	0.000000	0.000000	0.000000	-0.198716	300.000000	0.144924
2.440000	0.000000	0.076250	0.000000	0.000000	0.000000	-0.198716	298.449890	0.144924
0.000000	0.040000	0.076250	0.000000	0.000000	0.000000	-0.276928	300.000000	0.117334
0.076250	0.040000	0.076250	-0.090852	0.034646	0.024837	-0.276928	297.404480	0.117334
0.228750	0.040000	0.076250	-0.240450	0.021770	0.017275	-0.297987	297.347717	0.126804
0.381250	0.040000	0.076250	-0.338487	0.013460	0.013664	-0.320919	297.363586	0.129865
0.533750	0.040000	0.076250	-0.402251	0.007509	0.010194	-0.338695	297.405701	0.132317
0.732000	0.040000	0.076250	-0.445254	0.002688	0.006490	-0.350448	297.502075	0.135273
0.976000	0.040000	0.076250	-0.469828	-0.000875	0.005479	-0.354414	297.554016	0.137292
1.220000	0.040000	0.076250	-0.476211	-0.003519	0.006955	-0.352662	297.456604	0.137148
1.464000	0.040000	0.076250	-0.471415	-0.006986	0.010142	-0.345241	297.354645	0.137179
1.708000	0.040000	0.076250	-0.450840	-0.013362	0.015866	-0.327510	297.247375	0.137591
1.906250	0.040000	0.076250	-0.413689	-0.024053	0.024207	-0.298654	297.154846	0.138474
2.058750	0.040000	0.076250	-0.349390	-0.040423	0.034543	-0.260693	297.081360	0.139832
2.211250	0.040000	0.076250	-0.211562	-0.073851	0.045619	-0.197279	296.999176	0.141922
2.363750	0.040000	0.076250	0.196849	-0.182767	0.035272	-0.198716	296.899750	0.144924
2.440000	0.040000	0.076250	0.510020	0.000000	0.000000	-0.198716	296.899750	0.144924
0.000000	0.130982	0.076250	0.000000	0.000000	0.000000	-0.258036	300.000000	0.121105
0.076250	0.130982	0.076250	-0.079695	0.105201	0.026051	-0.258036	297.611084	0.121105
0.228750	0.130982	0.076250	-0.215085	0.070282	0.015757	-0.279917	297.478333	0.129567
0.381250	0.130982	0.076250	-0.307132	0.045778	0.008206	-0.303003	297.390900	0.130077
0.533750	0.130982	0.076250	-0.365325	0.028899	0.001143	-0.320384	297.309052	0.129439
0.732000	0.130982	0.076250	-0.402207	0.016044	-0.006485	-0.331732	297.216248	0.128488
0.976000	0.130982	0.076250	-0.420771	0.007939	-0.012212	-0.335504	297.130707	0.127692
1.220000	0.130982	0.076250	-0.422330	0.002785	-0.015841	-0.334047	297.066742	0.127366
1.464000	0.130982	0.076250	-0.412519	-0.004439	-0.019081	-0.327451	297.018494	0.127254
1.708000	0.130982	0.076250	-0.386606	-0.019823	-0.021520	-0.311689	296.981384	0.127606
1.906250	0.130982	0.076250	-0.347124	-0.048746	-0.020341	-0.286767	296.950623	0.128728
2.058750	0.130982	0.076250	-0.290141	-0.095830	-0.013026	-0.256693	296.917908	0.131526
2.211250	0.130982	0.076250	-0.191782	-0.187640	-0.002927	-0.214472	296.849426	0.137650
2.363750	0.130982	0.076250	-0.064495	-0.410121	0.002313	-0.208106	296.677185	0.148903
2.440000	0.130982	0.076250	0.000000	0.000000	0.000000	-0.208106	300.000000	0.148903
0.000000	0.275182	0.076250	0.000000	0.000000	0.000000	-0.242741	300.000000	0.122293
0.076250	0.275182	0.076250	-0.068959	0.186887	0.031537	-0.242741	297.688049	0.122293
0.228750	0.275182	0.076250	-0.183744	0.130048	0.018839	-0.260834	297.467072	0.125398
0.381250	0.275182	0.076250	-0.258283	0.087408	0.010112	-0.280419	297.362122	0.121132
0.533750	0.275182	0.076250	-0.302994	0.058517	0.003156	-0.294811	297.295624	0.117229
0.732000	0.275182	0.076250	-0.327501	0.037065	-0.003121	-0.303923	297.236115	0.113732
0.976000	0.275182	0.076250	-0.335748	0.025571	-0.006629	-0.306840	297.189545	0.111346
1.220000	0.275182	0.076250	-0.331093	0.020676	-0.009316	-0.305752	297.148438	0.110241
1.464000	0.275182	0.076250	-0.316548	0.013288	-0.013020	-0.300793	297.109100	0.109458
1.708000	0.275182	0.076250	-0.286480	-0.006618	-0.017572	-0.289319	297.077179	0.108671
1.906250	0.275182	0.076250	-0.247048	-0.048850	-0.019906	-0.272692	297.054504	0.109524
2.058750	0.275182	0.076250	-0.202595	-0.120010	-0.017363	-0.254978	297.021851	0.114034
2.211250	0.275182	0.076250	-0.143723	-0.256284	-0.010391	-0.231493	296.936798	0.126249
2.363750	0.275182	0.076250	-0.054895	-0.515839	-0.004853	-0.220144	296.740631	0.151501
2.440000	0.275182	0.076250	0.000000	0.000000	0.000000	-0.220144	300.000000	0.151501
0.000000	0.489112	0.076250	0.000000	0.000000	0.000000	-0.224732	300.000000	0.119929
0.076250	0.489112	0.076250	-0.058483	0.259238	0.041719	-0.224732	297.724762	0.119929
0.228750	0.489112	0.076250	-0.150285	0.173726	0.026611	-0.237951	297.476196	0.112668
0.381250	0.489112	0.076250	-0.200191	0.115383	0.013328	-0.250929	297.414307	0.101273
0.533750	0.489112	0.076250	-0.221117	0.078820	0.001481	-0.259093	297.388580	0.092411
0.732000	0.489112	0.076250	-0.219566	0.051793	-0.006421	-0.263454	297.366760	0.083974